ITEM: TIMESTEP
0
ITEM: NUMBER OF ATOMS
24
ITEM: BOX BOUNDS pp pp pp
0 10.0
0 10.0
0 10.0
ITEM: ATOMS id mol type x y z
1 1 0 0.7536038283097208 6.40130780538196 0.09586723993767475
2 2 0 3.267676635265504 2.038780163031883 6.008226323395317
3 3 0 8.305514952870368 0.9213714531265209 5.6557722237921295
4 4 0 0.3271480103949246 1.0409167606953833 4.1630662116141695
5 5 0 6.177286139729893 2.3412579923824666 5.577620166149586
6 6 0 0.337642706722717 1.9875578930087368 9.860667519228482
7 7 0 8.723175998210246 5.003421915228631 8.591327797620146
8 8 0 0.918439198310172 5.343618890711876 1.404088061871774
9 9 0 5.9147043854477275 0.8593294746768957 2.712020924089417
10 10 0 6.949093610191177 8.052609066828117 5.6003729106595905
11 11 0 7.767666006502105 1.7141166879869165 4.999176461194218
12 12 0 9.72367501217541 5.16909538650301 0.3720216050822066
13 13 0 3.692572138066725 1.0958063111848324 4.670202908692909
14 14 0 8.458838274193935 9.065010664905207 9.55831748378914
15 15 0 3.299973379712083 2.030305209641651 5.411339670267778
16 16 0 5.8129917172073595 9.696942624728337 5.620087533095171
17 17 0 1.4702985661367622 5.075134350468586 8.95829695714431
18 18 0 2.2819640385863753 4.200676302765295 2.894661101964829
19 19 0 8.66462961977447 9.595644661973061 2.1185855315102424
20 20 0 4.520198263967947 2.0858827665978206 6.153712584833957
21 21 0 3.7072422963758354 0.8882990956059427 9.774448915128428
22 22 0 0.44141562003674606 3.335105188186814 1.6754718027523186
23 23 0 4.888784407452188 5.516624723303327 2.5824538563069495
24 24 0 7.993375678705952 0.13449585690898444 0.7059947684203537
