ITEM: TIMESTEP
10000
ITEM: NUMBER OF ATOMS
24
ITEM: BOX BOUNDS pp pp pp
0 10.0
0 10.0
0 10.0
ITEM: ATOMS id mol type x y z
1 1 0 1.3408166727632052 6.7837232868904325 0.12282920695043313
2 2 0 3.0790492567007632 2.7549640565489333 6.3227979676235435
3 3 0 8.224180295233952 0.40135555905898296 5.184117878931905
4 4 0 1.3564752631528294 1.1790143849984733 4.514453995900961
5 5 0 5.989667380972712 2.8199735307084732 6.507881668300607
6 6 0 0.6669769754033393 1.3834069401665203 9.255258711446626
7 7 0 8.000654566320753 6.505633838274505 7.010862620848813
8 8 0 0.7413131892940783 4.003312789924897 1.6134679636062406
9 9 0 5.934822802297337 0.03344535492860985 1.8749607005373097
10 10 0 7.2717143228601575 9.158095264553731 6.42673374099822
11 11 0 6.636348921937187 1.2645110780493787 5.972838907417301
12 12 0 9.444829278272648 5.464406632054878 0.6714734139476669
13 13 0 3.0640377497566806 1.179489736408472 3.551668767297348
14 14 0 7.242685837566091 8.940324675867133 9.443843049397245
15 15 0 4.880227695668954 3.392236303842185 5.7071585350173475
16 16 0 6.460645186205908 8.912226971513613 5.504619705877772
17 17 0 1.4500547078449542 4.857717558884584 8.493579565255565
18 18 0 1.7326924992760275 3.9047064830859304 2.553831039831003
19 19 0 8.692047102404974 9.12837542719699 1.8904049487932295
20 20 0 3.993849965656851 1.0679899518770621 5.126100230234292
21 21 0 3.9971921845657743 1.594344961995012 8.691344604380463
22 22 0 0.3194973338638609 2.6409846619388038 1.781810374929402
23 23 0 6.1127130561221685 6.567302525071571 3.0431907322690246
24 24 0 6.8541300372330864 0.19589295103845997 1.2787512518558368
