ITEM: TIMESTEP
15000
ITEM: NUMBER OF ATOMS
24
ITEM: BOX BOUNDS pp pp pp
0 10.0
0 10.0
0 10.0
ITEM: ATOMS id mol type x y z
1 1 0 1.6344230320888025 6.974930986682054 0.13631018756872565
2 2 0 2.984733964839226 3.113055580641061 6.4800910283367426
3 3 0 8.183512975130519 0.1413476677285485 4.948290757024978
4 4 0 1.871138779272396 1.2480631823572725 4.690147850404166
5 5 0 5.895858021690783 3.0593312485923083 6.973012319728619
6 6 0 0.831644074465977 1.081331528460646 8.952554372405762
7 7 0 7.639393927774646 7.256739638882872 6.220630201758405
8 8 0 0.6527502037594746 3.3331598831046887 1.7181578920451581
9 9 0 5.9448670991447745 0.47983463938126925 1.4564251504229555
10 10 0 7.43302464463494 9.71083824499873 6.8399140676500085
11 11 0 6.070690500839674 1.039708321241483 6.4596700262314535
12 12 0 9.02908151256617 5.612062223197245 1.1932208116851022
13 13 0 2.7497706229285734 1.2213314400562059 2.9924018164140294
14 14 0 6.634609749524786 8.877981694705662 9.386605844463359
15 15 0 5.6703563071568475 4.073202051004816 5.855060663409441
16 16 0 6.784471851328748 8.216811918617296 5.446885804637136
17 17 0 1.4399327808677085 4.74900918638172 8.261220919090812
18 18 0 1.4580567884575169 3.7567216049496692 2.383416045273632
19 19 0 8.705755840782333 8.49038560846319 1.7763146818770184
20 20 0 3.730675872880558 0.5590436535518309 4.6122941630105005
21 21 0 4.142167097602426 1.9473678195591992 8.149792565025718
22 22 0 0.2585382038371006 2.293924473167663 1.8349796496271809
23 23 0 6.724677249351949 7.092641313409455 3.273559120896779
24 24 0 6.284522247953056 0.22658952624414358 2.271129577395137
