ITEM: TIMESTEP
20000
ITEM: NUMBER OF ATOMS
24
ITEM: BOX BOUNDS pp pp pp
0 10.0
0 10.0
0 10.0
ITEM: ATOMS id mol type x y z
1 1 0 1.9280350798265937 7.16614239098612 0.14979142937130802
2 2 0 2.890416845686874 3.471154042499844 6.637387136490367
3 3 0 8.142844867128911 0.11866526106795203 4.712459066138708
4 4 0 2.385812266627719 1.317113317486917 4.865845108848882
5 5 0 5.802046844919208 3.2986936038600136 7.438151982729482
6 6 0 0.9963143638350624 0.7792502642605285 8.649844168685025
7 7 0 7.278617859770574 8.008092798957222 5.4306970228273
8 8 0 0.564185502380731 2.6629939925535497 1.822849848776012
9 9 0 5.95489128482704 0.9262352619628903 1.037873919523817
10 10 0 7.594338091679414 9.73640806555914 7.253102399373981
11 11 0 5.505021120517981 0.8149012090420175 6.946510577047776
12 12 0 8.613325692048127 5.75972067505971 1.7149783179033924
13 13 0 2.43549740739973 1.2631739543567988 2.433124030135751
14 14 0 6.026521880445132 8.815637505695065 9.329367530598573
15 15 0 6.460500226819111 4.754180991388613 6.002965657300404
16 16 0 7.1078132206512645 7.5211505852194405 5.388836234498135
17 17 0 1.429810657785706 4.640298707732114 8.02885777114356
18 18 0 1.1834157567698413 3.608733859712213 2.2129977490490833
19 19 0 8.71946484475707 7.852383429135899 1.6622222045436539
20 20 0 3.4674966812955303 0.05008749475777187 4.0984781411639455
21 21 0 4.287144819423845 2.3003975166882027 7.60823003348912
22 22 0 0.19757789277096835 1.9468575603545992 1.8881499544413265
23 23 0 7.336653298947808 7.617990279808221 3.5039319727463996
24 24 0 5.714923728698365 0.2572840065163453 3.2635347015104816
