ITEM: TIMESTEP
25000
ITEM: NUMBER OF ATOMS
24
ITEM: BOX BOUNDS pp pp pp
0 10.0
0 10.0
0 10.0
ITEM: ATOMS id mol type x y z
1 1 0 2.221642451327849 7.357350749944867 0.16327245646379265
2 2 0 2.7961012286843117 3.8292468010730984 6.79468073945432
3 3 0 8.102177406827966 0.37867404874678906 4.4766311312442175
4 4 0 2.900477556993116 1.3861623528836433 5.0415395690369005
5 5 0 5.708237162238809 3.5380521469035395 7.903284237643271
6 6 0 1.1609820305690812 0.4771738111829153 8.347138786101578
7 7 0 6.919787865175768 8.761068176152344 4.641899234671028
8 8 0 0.47568365690831765 1.992921963610407 1.9275355719179235
9 9 0 5.964915310857033 1.3726287749077963 0.6193293547159912
10 10 0 7.755648969553465 9.183663179597508 7.666284150418735
11 11 0 4.939360749375872 0.5900976772518189 7.433343374158109
12 12 0 8.197576493101797 5.907376775228383 2.2367275143074488
13 13 0 2.121229197170094 1.3050158022495761 1.8738551512424528
14 14 0 5.418443696128058 8.753294309614937 9.272130128343882
15 15 0 7.250631562188518 5.43514908610396 6.1508682955705405
16 16 0 7.429209112773733 6.823866147719424 5.329664779050978
17 17 0 1.419688695914509 4.531589960468486 7.796498323950659
18 18 0 0.9087790991756081 3.460748471413255 2.042582167004918
19 19 0 8.733173630393903 7.214391411002961 1.54813154431362
20 20 0 3.204321681255636 0.4588605581034321 3.5846703026504456
21 21 0 4.432120232246022 2.6534215912596744 7.066676127192419
22 22 0 0.13655710722093908 1.5997129869767481 1.9413239786376038
23 23 0 7.948619601855576 8.143330879191751 3.734301155543767
24 24 0 5.145334281203051 0.28797799793029294 4.2559240200029445
