ITEM: TIMESTEP
30000
ITEM: NUMBER OF ATOMS
24
ITEM: BOX BOUNDS pp pp pp
0 10.0
0 10.0
0 10.0
ITEM: ATOMS id mol type x y z
1 1 0 2.515279259601762 7.548578279257878 0.17675483515016432
2 2 0 2.701776155694868 4.1873754616574494 6.951990112514174
3 3 0 8.061505869250762 0.6387089046391857 4.240779552483669
4 4 0 3.415194447170762 1.4552183110654868 5.217251644169245
5 5 0 5.6144180742975065 3.777434687788415 8.368463126238785
6 6 0 1.3256662067139358 0.17506707223098902 8.04440305458774
7 7 0 6.5609231902402465 9.514124450830117 3.8530223957588654
8 8 0 0.3924166022345962 1.326538494028049 2.0324209924528875
9 9 0 5.974940341885854 1.8190670428071518 0.20074282706055754
10 10 0 7.91697602029037 8.630862876 8.079507326640494
11 11 0 4.373643665707374 0.3652716068907173 7.920224980623095
12 12 0 7.78178561156609 6.055047679245851 2.7585290207491644
13 13 0 1.806929478733044 1.3468618451630034 1.3145302006265291
14 14 0 4.810304546517253 8.69094486306797 9.21488698752789
15 15 0 8.04084211531283 6.116185453980639 6.298785762405765
16 16 0 7.750635932132144 6.126506396253803 5.2704873578372124
17 17 0 1.4095657192259243 4.422870314179008 7.564115580637934
18 18 0 0.6341149067924516 3.3127482462523155 1.8721494992702004
19 19 0 8.746883790459647 6.576335428447584 1.4340294454713345
20 20 0 2.9411202955617823 0.9678596375728812 3.070810950291411
21 21 0 4.577110180152879 3.0064810596616094 6.525067925259392
22 22 0 0.07028653988707526 1.248777869147566 1.9943141322964955
23 23 0 8.560647259874944 8.668724148684943 3.9646934349184986
24 24 0 4.575687727255354 0.31867506669228995 5.248412834427176
