ITEM: TIMESTEP
35000
ITEM: NUMBER OF ATOMS
24
ITEM: BOX BOUNDS pp pp pp
0 10.0
0 10.0
0 10.0
ITEM: ATOMS id mol type x y z
1 1 0 2.80894701877386 7.739825964979288 0.1902386349517451
2 2 0 2.60744114033579 4.545541870929038 7.109316066827558
3 3 0 8.020830044673541 0.898771169603336 4.004903113699163
4 4 0 3.929965591275419 1.5242815481167389 5.392982240299839
5 5 0 5.520589097319779 4.016842460880056 8.833691047191222
6 6 0 1.4903677414564014 0.12707151039536732 7.741635413100721
7 7 0 6.202020689038687 9.732739898312435 3.06406240498725
8 8 0 0.3399813588717938 0.665100530651678 2.1413905228001364
9 9 0 5.984966429606363 2.2655523677000415 0.2178878218651835
10 10 0 8.078320075764452 8.078004304279226 8.492774058806429
11 11 0 3.8078669524163304 0.14042183865320015 8.407157907025892
12 12 0 7.365950903436807 6.202734148571427 3.280385527874874
13 13 0 1.492596631415926 1.3887122988741891 0.7551462941540764
14 14 0 4.202101295771098 8.628588844554773 9.157637812977448
15 15 0 8.831135960877775 6.797293606751186 6.446718820536787
16 16 0 8.07209663160597 5.429073139321068 5.2113036990050245
17 17 0 1.3994416755208618 4.314139208253769 7.331708342934485
18 18 0 0.3594217633268236 3.164732421071557 1.7016988670157769
19 19 0 8.760595395649782 5.938212191360844 1.3199153196543696
20 20 0 2.6778911670268357 1.4769123682816754 2.5568974343940853
21 21 0 4.722115410779762 3.3595777424294004 5.983402634910114
22 22 0 0.025803492736137544 0.8927900142641926 2.0432368170773616
23 23 0 9.172739428898682 9.194172797453044 4.195109998877798
24 24 0 4.005981129498566 0.3493753710904109 6.2410062625084475
