ITEM: TIMESTEP
40000
ITEM: NUMBER OF ATOMS
24
ITEM: BOX BOUNDS pp pp pp
0 10.0
0 10.0
0 10.0
ITEM: ATOMS id mol type x y z
1 1 0 3.102566331738004 7.931042100675484 0.20372021033830084
2 2 0 2.513121687372163 4.903649193685242 7.266616067164886
3 3 0 7.980160930366627 1.1587905322390808 3.7690655873207977
4 4 0 4.444651813868834 1.5933333918438326 5.56868384625026
5 5 0 5.426775599256402 4.256210739003965 9.298842219749748
6 6 0 1.655042105477666 0.429160249386313 7.438917719024298
7 7 0 5.843177395784974 8.97972849182738 2.275232568510526
8 8 0 0.3030440642145363 0.0029799012993391243 2.2542067706029227
9 9 0 5.994990863328768 2.7119640361554476 0.6364494095235931
10 10 0 8.23963751440036 7.525236937333314 8.905972614587965
11 11 0 3.242183574998447 0.0843908362419984 8.89401050437376
12 12 0 6.950184795329435 6.350396254141541 3.8021559446205124
13 13 0 1.178315639415392 1.4305558485391046 0.19585466893627188
14 14 0 3.5939983799806035 8.5662431128791 9.100398082792347
15 15 0 9.621299432102607 7.478289397486319 6.594627474233409
16 16 0 8.393504299885171 4.731754937568478 5.152129803668177
17 17 0 1.389319301973978 4.205426039639467 7.0993394453245395
18 18 0 0.08477393583760785 3.0167410139799444 1.531276353908297
19 19 0 8.77430473884424 5.3001942251130005 1.2058200191817876
20 20 0 2.4147054632561735 1.9858811208420282 2.0430686985260333
21 21 0 4.8670967199734125 3.7126161750323203 5.441826702785263
22 22 0 0.12423829455021745 0.5436124936539312 2.0882867370109883
23 23 0 9.784730621415095 9.719534763246251 4.4254885511436886
24 24 0 3.4363685159250847 0.38007061087622057 7.2334359429985495
