ITEM: TIMESTEP
45000
ITEM: NUMBER OF ATOMS
24
ITEM: BOX BOUNDS pp pp pp
0 10.0
0 10.0
0 10.0
ITEM: ATOMS id mol type x y z
1 1 0 3.2786155082815065 8.045692063210717 0.21180353503978397
2 2 0 2.4565693378056808 5.118364290758543 7.360930488277945
3 3 0 7.955776416922826 1.314693746558966 3.627661393237492
4 4 0 4.7532489723838065 1.634735710050259 5.674031559017932
5 5 0 5.370526611695871 4.399731912148986 9.577738999634809
6 6 0 1.7537780703949444 0.6102875506041885 7.257413306968657
7 7 0 5.628021023243553 8.528235581836649 1.8022635333906187
8 8 0 -3879629.5045622955 -4228253.429304611 -8623238.000561016
9 9 0 6.001001344329614 2.979624926162024 0.8874118618786617
10 10 0 8.336360723602661 7.1938069684084125 9.153719483687377
11 11 0 2.9030093845343163 0.21918471574686085 9.185919091707424
12 12 0 6.7008984652568895 6.438931956476252 4.115000666194295
13 13 0 0.9898780693977403 1.4556445335708106 0.13948713495817125
14 14 0 3.229390151392045 8.528861666096724 9.066078108187657
15 15 0 9.904931907927331 7.886602961668323 6.6833110026568825
16 16 0 8.586214904524839 4.3136547316654825 5.116650136332731
17 17 0 1.3832500979098858 4.14024346148805 6.96001498241398
18 18 0 0.07990025872063716 2.928007868019411 1.4290938959689043
19 19 0 8.782524629273437 4.917649437971813 1.137410405750892
20 20 0 2.256903764317337 2.2910501809775297 1.7349856745548167
21 21 0 4.954025062118744 3.9242920512570363 5.117106928993578
22 22 0 3879629.9687175197 4228254.169048239 8623242.437708423
23 23 0 9.84832980500334 9.965467083083462 4.563619636631247
24 24 0 3.0948384218844405 0.3984749577618384 7.828480002819338
