ITEM: TIMESTEP
5000
ITEM: NUMBER OF ATOMS
24
ITEM: BOX BOUNDS pp pp pp
0 10.0
0 10.0
0 10.0
ITEM: ATOMS id mol type x y z
1 1 0 1.047210313494755 6.592515587136984 0.10934822633479262
2 2 0 3.17336454854388 2.396872532526936 6.1655049069405266
3 3 0 8.26484761533206 0.6613634503389895 5.419945000793558
4 4 0 0.8418117471336868 1.109965587653101 4.338760141431489
5 5 0 6.083476740235554 2.5806158128712435 6.042751016963587
6 6 0 0.502309876372604 1.6854823518132498 9.557963050428011
7 7 0 8.361915204800274 5.754528037811724 7.801095039785644
8 8 0 0.8298761748114825 4.6734656966170425 1.5087780351877407
9 9 0 5.924763596029383 0.4129419641549009 2.2934907225674945
10 10 0 7.1104040011155565 8.605352284216147 6.013553414427658
11 11 0 7.202007342925067 1.489313834813554 5.486007788697246
12 12 0 9.86057704390012 5.316751040940918 0.14972601631151072
13 13 0 3.3783048765230905 1.1376480327688385 4.110935718071703
14 14 0 7.85076192548844 9.002667657017954 9.50108025431959
15 15 0 4.0900990843346365 2.7112705568113813 5.559256406654994
16 16 0 6.136818521145208 9.607642024274108 5.562353607106424
17 17 0 1.4601766348204246 4.9664259313661425 8.725938211375045
18 18 0 2.0073282100412455 4.052691361193118 2.724246034355751
19 19 0 8.67833836402939 9.766365245807398 2.0044952156871365
20 20 0 4.257024058379709 1.5769362501036823 5.639906297358215
21 21 0 3.852217271557974 1.2413221044995124 9.23289664362868
22 22 0 0.38045646387877574 2.9880448506422557 1.728641100241943
23 23 0 5.500748863010899 6.041963736836219 2.8128223436861
24 24 0 7.423752735824929 0.16519441055644404 0.28637845451318117
